LAMMPS Description

14 atoms
91 bonds
0 angles
0 dihedrals

1 atom types
91 bond types
0 angle types
0 dihedral types

-5000.0 5000.0 xlo xhi
-5000.0 5000.0 ylo yhi
-5000.0 5000.0 zlo zhi

Masses

  1 1.0

Bond Coeffs

  1 0.143 55.489
  2 0.001 71.956
  3 0.001 79.206
  4 0.003 134.144
  5 0.174 62.531
  6 1.116 49.611
  7 2.337 36.684
  8 0.048 60.914
  9 0.005 61.742
  10 0.001 51.117
  11 0.002 57.989
  12 0.024 76.445
  13 0.004 136.53
  14 0.062 48.571
  15 0.001 72.973
  16 0.003 126.999
  17 0.007 32.505
  18 0.006 54.431
  19 0.105 68.773
  20 0.02 22.277
  21 0.053 33.017
  22 0.006 59.031
  23 0.014 68.443
  24 0.008 84.478
  25 0.016 133.739
  26 0.249 60.326
  27 0.002 110.306
  28 0.002 48.8
  29 0.006 78.521
  30 0.061 86.416
  31 0.008 42.321
  32 0.09 28.308
  33 0.896 23.021
  34 0.05 49.112
  35 0.048 70.448
  36 0.003 120.178
  37 0.072 61.248
  38 0.002 88.3
  39 0.007 82.305
  40 0.005 72.96
  41 0.001 75.462
  42 0.014 79.643
  43 0.095 51.785
  44 0.66 25.738
  45 0.435 28.076
  46 0.011 72.535
  47 0.003 133.989
  48 0.001 125.023
  49 0.002 116.7
  50 0.006 123.079
  51 0.001 130.929
  52 0.006 107.017
  53 0.006 79.86
  54 0.088 60.344
  55 0.049 13.87
  56 2.546 35.849
  57 0.145 63.672
  58 0.254 15.307
  59 0.01 24.66
  60 0.011 45.37
  61 0.002 70.857
  62 0.005 87.404
  63 0.001 140.568
  64 2.035 32.852
  65 0.169 40.11
  66 0.057 59.3
  67 0.073 74.198
  68 0.007 70.181
  69 0.002 75.316
  70 0.001 130.901
  71 0.114 62.803
  72 0.035 81.992
  73 0.035 64.939
  74 0.014 53.401
  75 0.007 59.496
  76 0.001 125.162
  77 0.044 24.142
  78 0.005 45.448
  79 0.017 68.762
  80 0.012 81.351
  81 0.001 129.741
  82 0.125 29.099
  83 0.005 60.79
  84 0.006 82.497
  85 0.001 140.696
  86 0.006 33.329
  87 0.005 57.015
  88 0.004 119.353
  89 0.251 25.786
  90 0.006 91.323
  91 0.017 70.944

Atoms

  1 1 1 50.348453521728516 49.82274627685547 63.031707763671875
  2 1 1 103.61739349365234 43.47416687011719 48.626155853271484
  3 1 1 100.12948608398438 49.18103790283203 86.35681915283203
  4 1 1 53.99665451049805 62.16240310668945 123.10783386230469
  5 1 1 34.88954544067383 101.0597915649414 170.15638732910156
  6 1 1 103.24141693115234 83.21771240234375 67.68157958984375
  7 1 1 73.32091522216797 90.34266662597656 77.87659454345703
  8 1 1 43.354984283447266 84.1053695678711 70.07530975341797
  9 1 1 103.64651489257812 88.29627990722656 59.11558532714844
  10 1 1 104.33280944824219 58.28720474243164 61.323604583740234
  11 1 1 82.44457244873047 59.69143295288086 77.76914978027344
  12 1 1 66.24773406982422 72.0609130859375 95.42068481445312
  13 1 1 54.26059341430664 86.27488708496094 107.61397552490234
  14 1 1 33.715694427490234 91.98653411865234 175.50125122070312

Bonds

  1 1 1 2
  2 2 1 3
  3 3 1 4
  4 4 1 5
  5 5 1 6
  6 6 1 7
  7 7 1 8
  8 8 1 9
  9 9 1 10
  10 10 1 11
  11 11 1 12
  12 12 1 13
  13 13 1 14
  14 14 2 3
  15 15 2 4
  16 16 2 5
  17 17 2 6
  18 18 2 7
  19 19 2 8
  20 20 2 9
  21 21 2 10
  22 22 2 11
  23 23 2 12
  24 24 2 13
  25 25 2 14
  26 26 3 4
  27 27 3 5
  28 28 3 6
  29 29 3 7
  30 30 3 8
  31 31 3 9
  32 32 3 10
  33 33 3 11
  34 34 3 12
  35 35 3 13
  36 36 3 14
  37 37 4 5
  38 38 4 6
  39 39 4 7
  40 40 4 8
  41 41 4 9
  42 42 4 10
  43 43 4 11
  44 44 4 12
  45 45 4 13
  46 46 4 14
  47 47 5 6
  48 48 5 7
  49 49 5 8
  50 50 5 9
  51 51 5 10
  52 52 5 11
  53 53 5 12
  54 54 5 13
  55 55 5 14
  56 56 6 7
  57 57 6 8
  58 58 6 9
  59 59 6 10
  60 60 6 11
  61 61 6 12
  62 62 6 13
  63 63 6 14
  64 64 7 8
  65 65 7 9
  66 66 7 10
  67 67 7 11
  68 68 7 12
  69 69 7 13
  70 70 7 14
  71 71 8 9
  72 72 8 10
  73 73 8 11
  74 74 8 12
  75 75 8 13
  76 76 8 14
  77 77 9 10
  78 78 9 11
  79 79 9 12
  80 80 9 13
  81 81 9 14
  82 82 10 11
  83 83 10 12
  84 84 10 13
  85 85 10 14
  86 86 11 12
  87 87 11 13
  88 88 11 14
  89 89 12 13
  90 90 12 14
  91 91 13 14

