LAMMPS Description

14 atoms
91 bonds
0 angles
0 dihedrals

1 atom types
91 bond types
0 angle types
0 dihedral types

-5000.0 5000.0 xlo xhi
-5000.0 5000.0 ylo yhi
-5000.0 5000.0 zlo zhi

Masses

  1 1.0

Bond Coeffs

  1 1.379 55.786
  2 0.363 53.755
  3 0.003 58.605
  4 0.003 115.709
  5 0.068 63.087
  6 1.082 48.958
  7 0.788 36.313
  8 0.001 63.781
  9 0.25 55.956
  10 1.991 36.508
  11 0.007 43.051
  12 0.148 59.199
  13 0.017 122.372
  14 0.053 37.033
  15 0.014 89.975
  16 0.048 146.935
  17 0.206 42.775
  18 0.024 63.14
  19 0.318 76.88
  20 0.004 40.46
  21 0.219 20.16
  22 0.047 38.767
  23 0.014 66.395
  24 0.005 90.858
  25 0.023 139.912
  26 1.066 60.014
  27 0.018 116.175
  28 0.01 40.184
  29 0.056 49.468
  30 0.342 67.844
  31 0.038 46.661
  32 0.303 27.621
  33 1.575 22.843
  34 0.018 41.444
  35 0.029 65.48
  36 0.057 121.227
  37 0.193 63.413
  38 0.045 79.181
  39 0.488 55.873
  40 0.028 54.829
  41 0.067 86.909
  42 0.176 80.054
  43 0.043 53.977
  44 0.729 31.056
  45 0.329 28.274
  46 0.008 66.917
  47 0.001 123.759
  48 0.001 97.071
  49 0.001 95.83
  50 0.001 132.163
  51 0.002 132.775
  52 0.003 109.775
  53 0.002 82.779
  54 0.001 61.234
  55 0.001 20.618
  56 0.314 34.192
  57 0.017 61.428
  58 0.044 10.981
  59 0.04 23.921
  60 0.006 32.587
  61 0.013 49.544
  62 0.002 68.882
  63 0.021 133.883
  64 1.218 31.614
  65 0.039 39.399
  66 0.063 47.656
  67 0.063 30.64
  68 1.839 26.116
  69 0.18 38.396
  70 0.006 109.204
  71 0.003 63.445
  72 0.035 68.015
  73 0.587 45.981
  74 0.456 35.829
  75 0.138 38.59
  76 0.029 107.306
  77 0.062 24.782
  78 0.002 37.656
  79 0.004 56.691
  80 0.041 76.006
  81 0.024 135.566
  82 0.113 27.523
  83 0.022 53.68
  84 0.005 77.434
  85 0.029 139.775
  86 0.13 27.702
  87 0.046 52.243
  88 0.019 117.529
  89 0.003 25.021
  90 0.006 91.412
  91 0.079 72.573

Atoms

  1 1 1 50.348453521728516 49.82274627685547 63.031707763671875
  2 1 1 103.61739349365234 43.47416687011719 48.626155853271484
  3 1 1 100.12948608398438 49.18103790283203 86.35681915283203
  4 1 1 53.99665451049805 62.16240310668945 123.10783386230469
  5 1 1 34.88954544067383 101.0597915649414 170.15638732910156
  6 1 1 103.24141693115234 83.21771240234375 67.68157958984375
  7 1 1 73.32091522216797 90.34266662597656 77.87659454345703
  8 1 1 43.354984283447266 84.1053695678711 70.07530975341797
  9 1 1 103.64651489257812 88.29627990722656 59.11558532714844
  10 1 1 104.33280944824219 58.28720474243164 61.323604583740234
  11 1 1 82.44457244873047 59.69143295288086 77.76914978027344
  12 1 1 66.24773406982422 72.0609130859375 95.42068481445312
  13 1 1 54.26059341430664 86.27488708496094 107.61397552490234
  14 1 1 33.715694427490234 91.98653411865234 175.50125122070312

Bonds

  1 1 1 2
  2 2 1 3
  3 3 1 4
  4 4 1 5
  5 5 1 6
  6 6 1 7
  7 7 1 8
  8 8 1 9
  9 9 1 10
  10 10 1 11
  11 11 1 12
  12 12 1 13
  13 13 1 14
  14 14 2 3
  15 15 2 4
  16 16 2 5
  17 17 2 6
  18 18 2 7
  19 19 2 8
  20 20 2 9
  21 21 2 10
  22 22 2 11
  23 23 2 12
  24 24 2 13
  25 25 2 14
  26 26 3 4
  27 27 3 5
  28 28 3 6
  29 29 3 7
  30 30 3 8
  31 31 3 9
  32 32 3 10
  33 33 3 11
  34 34 3 12
  35 35 3 13
  36 36 3 14
  37 37 4 5
  38 38 4 6
  39 39 4 7
  40 40 4 8
  41 41 4 9
  42 42 4 10
  43 43 4 11
  44 44 4 12
  45 45 4 13
  46 46 4 14
  47 47 5 6
  48 48 5 7
  49 49 5 8
  50 50 5 9
  51 51 5 10
  52 52 5 11
  53 53 5 12
  54 54 5 13
  55 55 5 14
  56 56 6 7
  57 57 6 8
  58 58 6 9
  59 59 6 10
  60 60 6 11
  61 61 6 12
  62 62 6 13
  63 63 6 14
  64 64 7 8
  65 65 7 9
  66 66 7 10
  67 67 7 11
  68 68 7 12
  69 69 7 13
  70 70 7 14
  71 71 8 9
  72 72 8 10
  73 73 8 11
  74 74 8 12
  75 75 8 13
  76 76 8 14
  77 77 9 10
  78 78 9 11
  79 79 9 12
  80 80 9 13
  81 81 9 14
  82 82 10 11
  83 83 10 12
  84 84 10 13
  85 85 10 14
  86 86 11 12
  87 87 11 13
  88 88 11 14
  89 89 12 13
  90 90 12 14
  91 91 13 14

