LAMMPS Description

14 atoms
91 bonds
0 angles
0 dihedrals

1 atom types
91 bond types
0 angle types
0 dihedral types

-5000.0 5000.0 xlo xhi
-5000.0 5000.0 ylo yhi
-5000.0 5000.0 zlo zhi

Masses

  1 1.0

Bond Coeffs

  1 0.199 55.864
  2 0.001 73.174
  3 0.001 82.064
  4 0.003 133.717
  5 0.069 62.407
  6 0.504 49.467
  7 1.335 36.516
  8 0.054 61.148
  9 0.001 64.599
  10 0.001 55.38
  11 0.001 60.625
  12 0.003 76.974
  13 0.007 136.31
  14 0.039 47.414
  15 0.002 75.438
  16 0.001 125.537
  17 0.001 36.432
  18 0.027 55.797
  19 0.049 68.19
  20 0.001 26.927
  21 0.154 31.97
  22 0.002 56.182
  23 0.002 66.936
  24 0.001 81.356
  25 0.002 131.721
  26 0.541 60.439
  27 0.002 111.103
  28 0.005 51.553
  29 0.004 79.445
  30 0.041 85.413
  31 0.018 42.231
  32 0.139 28.485
  33 0.202 22.398
  34 0.011 45.973
  35 0.016 68.365
  36 0.001 119.427
  37 0.083 60.691
  38 0.004 92.142
  39 0.002 87.483
  40 0.001 76.358
  41 0.003 78.355
  42 0.089 80.541
  43 0.06 52.765
  44 0.024 27.599
  45 0.159 28.111
  46 0.025 72.38
  47 0.001 133.726
  48 0.001 124.868
  49 0.003 116.677
  50 0.001 121.261
  51 0.001 128.839
  52 0.016 107.296
  53 0.079 80.922
  54 0.098 60.68
  55 0.007 15.454
  56 1.391 35.708
  57 0.158 63.89
  58 0.191 15.956
  59 0.063 26.09
  60 0.01 46.203
  61 0.002 70.813
  62 0.002 84.944
  63 0.002 137.166
  64 1.145 32.987
  65 0.136 39.728
  66 0.02 58.686
  67 0.001 73.281
  68 0.007 72.129
  69 0.001 76.074
  70 0.001 129.461
  71 0.016 63.286
  72 0.007 79.995
  73 0.009 66.241
  74 0.005 57.738
  75 0.001 62.487
  76 0.001 125.569
  77 0.013 21.705
  78 0.001 41.48
  79 0.001 64.482
  80 0.001 75.445
  81 0.001 128.565
  82 0.067 28.959
  83 0.008 58.603
  84 0.003 79.534
  85 0.001 137.617
  86 0.021 30.507
  87 0.006 54.208
  88 0.003 119.699
  89 0.217 25.816
  90 0.012 93.476
  91 0.005 72.702

Atoms

  1 1 1 56.52384948730469 138.90306091308594 188.03195190429688
  2 1 1 34.77217102050781 101.62162780761719 151.7314453125
  3 1 1 32.69908905029297 58.55302810668945 128.9486541748047
  4 1 1 50.396690368652344 9.633810043334961 98.44084930419922
  5 1 1 83.801513671875 -2.57066011428833 48.61307907104492
  6 1 1 60.72391128540039 82.26825714111328 168.4872283935547
  7 1 1 87.4133529663086 105.68518829345703 169.46417236328125
  8 1 1 88.74932861328125 138.05482482910156 171.72239685058594
  9 1 1 58.03049087524414 85.73216247558594 153.8954315185547
  10 1 1 42.673828125 71.38321685791016 151.77084350585938
  11 1 1 49.37097930908203 46.67873001098633 137.25637817382812
  12 1 1 56.671749114990234 19.309560775756836 120.59921264648438
  13 1 1 76.30003356933594 8.856450080871582 106.95903778076172
  14 1 1 87.72541809082031 -14.398240089416504 39.828468322753906

Bonds

  1 1 1 2
  2 2 1 3
  3 3 1 4
  4 4 1 5
  5 5 1 6
  6 6 1 7
  7 7 1 8
  8 8 1 9
  9 9 1 10
  10 10 1 11
  11 11 1 12
  12 12 1 13
  13 13 1 14
  14 14 2 3
  15 15 2 4
  16 16 2 5
  17 17 2 6
  18 18 2 7
  19 19 2 8
  20 20 2 9
  21 21 2 10
  22 22 2 11
  23 23 2 12
  24 24 2 13
  25 25 2 14
  26 26 3 4
  27 27 3 5
  28 28 3 6
  29 29 3 7
  30 30 3 8
  31 31 3 9
  32 32 3 10
  33 33 3 11
  34 34 3 12
  35 35 3 13
  36 36 3 14
  37 37 4 5
  38 38 4 6
  39 39 4 7
  40 40 4 8
  41 41 4 9
  42 42 4 10
  43 43 4 11
  44 44 4 12
  45 45 4 13
  46 46 4 14
  47 47 5 6
  48 48 5 7
  49 49 5 8
  50 50 5 9
  51 51 5 10
  52 52 5 11
  53 53 5 12
  54 54 5 13
  55 55 5 14
  56 56 6 7
  57 57 6 8
  58 58 6 9
  59 59 6 10
  60 60 6 11
  61 61 6 12
  62 62 6 13
  63 63 6 14
  64 64 7 8
  65 65 7 9
  66 66 7 10
  67 67 7 11
  68 68 7 12
  69 69 7 13
  70 70 7 14
  71 71 8 9
  72 72 8 10
  73 73 8 11
  74 74 8 12
  75 75 8 13
  76 76 8 14
  77 77 9 10
  78 78 9 11
  79 79 9 12
  80 80 9 13
  81 81 9 14
  82 82 10 11
  83 83 10 12
  84 84 10 13
  85 85 10 14
  86 86 11 12
  87 87 11 13
  88 88 11 14
  89 89 12 13
  90 90 12 14
  91 91 13 14

